                         Program Version 4.2.1 -  RELEASE  -
|  1> !PBE0 FREQ OPT def2-SVP
|  2> * xyz 0 1
|  3>    O       -4.00000        0.00000        0.00000
|  4>    H       -2.97365        0.00000        0.00000
|  5>    H       -3.99650       -0.97855        0.31165
|  6> *
|  7>
|  8>
|  9>                          ****END OF INPUT****
 Total Charge           Charge          ....    0
 Multiplicity           Mult            ....    1
 Number of Electrons    NEL             ....   10
FINAL SINGLE POINT ENERGY       -76.266550763033
FINAL SINGLE POINT ENERGY       -76.275009076519
FINAL SINGLE POINT ENERGY       -76.276246868025
FINAL SINGLE POINT ENERGY       -76.276333578180
FINAL SINGLE POINT ENERGY       -76.276334092245
                    ***********************HURRAY********************

CARTESIAN COORDINATES (ANGSTROEM)
---------------------------------
  O     -3.939131   -0.058102    0.018504
  H     -2.983028    0.049039   -0.015618
  H     -4.047991   -0.969487    0.308764

 Multiplicity           Mult            ....    1
 Number of Electrons    NEL             ....   10
 Basis Dimension        Dim             ....   24

ORBITAL ENERGIES
----------------

  NO   OCC          E(Eh)            E(eV)
   0   2.0000     -19.192744      -522.2611
   1   2.0000      -1.007163       -27.4063
   2   2.0000      -0.526580       -14.3290
   3   2.0000      -0.382685       -10.4134
   4   2.0000      -0.305484        -8.3126
   5   0.0000       0.064164         1.7460
   6   0.0000       0.142115         3.8672
   7   0.0000       0.576332        15.6828
   8   0.0000       0.643955        17.5229
   9   0.0000       0.941334        25.6150

MULLIKEN ATOMIC CHARGES
-----------------------
   0 O :   -0.307127
   1 H :    0.153307
   2 H :    0.153820
Sum of atomic charges:    0.0000000

LOEWDIN ATOMIC CHARGES
----------------------
   0 O :   -0.148748
   1 H :    0.074307
   2 H :    0.074441

  Mayer bond orders larger than 0.100000
B(  0-O ,  1-H ) :   1.0077 B(  0-O ,  2-H ) :   1.0075

FINAL SINGLE POINT ENERGY       -76.276334098080

DIPOLE MOMENT
-------------
                                X             Y             Z
Electronic contribution:     -0.14003       0.13274      -0.04187
Nuclear contribution   :      0.70521      -0.66942       0.21320
                        -----------------------------------------
Total Dipole Moment    :      0.56518      -0.53668       0.17133
                        -----------------------------------------
Magnitude (a.u.)       :      0.79800
Magnitude (Debye)      :      2.02836

VIBRATIONAL FREQUENCIES
-----------------------

Scaling factor for frequencies =  1.000000000  (already applied!)

   0:         0.00 cm**-1
   1:         0.00 cm**-1
   2:         0.00 cm**-1
   3:         0.00 cm**-1
   4:         0.00 cm**-1
   5:         0.00 cm**-1
   6:      1642.86 cm**-1
   7:      3866.43 cm**-1
   8:      3966.33 cm**-1

IR SPECTRUM
-----------

 Mode    freq (cm**-1)   T**2         TX         TY         TZ
-------------------------------------------------------------------
   6:      1642.86   59.309784  (  5.458987  -5.175974   1.648799)
   7:      3866.43    9.187134  (  2.153855  -2.032319   0.646315)
   8:      3966.33   39.053705  (  4.403019   4.226107  -1.344304)

--------------------------
THERMOCHEMISTRY AT 298.15K
--------------------------

Temperature         ... 298.15 K
Pressure            ... 1.00 atm
Total Mass          ... 18.02 AMU

Throughout the following assumptions are being made:
  (1) The electronic state is orbitally nondegenerate
  (2) There are no thermally accessible electronically excited states
  (3) Hindered rotations indicated by low frequency modes are not
      treated as such but are treated as vibrations and this may
      cause some error
  (4) All equations used are the standard statistical mechanics
      equations for an ideal gas
  (5) All vibrations are strictly harmonic

freq.    1642.86  E(vib)   ...       0.00
freq.    3866.43  E(vib)   ...       0.00
freq.    3966.33  E(vib)   ...       0.00

------------
INNER ENERGY
------------

The inner energy is: U= E(el) + E(ZPE) + E(vib) + E(rot) + E(trans)
    E(el)   - is the total energy from the electronic structure calculation
              = E(kin-el) + E(nuc-el) + E(el-el) + E(nuc-nuc)
    E(ZPE)  - the the zero temperature vibrational energy from the frequency calculation
    E(vib)  - the the finite temperature correction to E(ZPE) due to population
              of excited vibrational states
    E(rot)  - is the rotational thermal energy
    E(trans)- is the translational thermal energy

Summary of contributions to the inner energy U:
Electronic energy                ...    -76.27633410 Eh
Zero point energy                ...      0.02158704 Eh      13.55 kcal/mol
Thermal vibrational correction   ...      0.00000270 Eh       0.00 kcal/mol
Thermal rotational correction    ...      0.00141627 Eh       0.89 kcal/mol
Thermal translational correction ...      0.00141627 Eh       0.89 kcal/mol
-----------------------------------------------------------------------
Total thermal energy                    -76.25191182 Eh

Summary of corrections to the electronic energy:
(perhaps to be used in another calculation)
Total thermal correction                  0.00283524 Eh       1.78 kcal/mol
Non-thermal (ZPE) correction              0.02158704 Eh      13.55 kcal/mol
-----------------------------------------------------------------------
Total correction                          0.02442228 Eh      15.33 kcal/mol

--------
ENTHALPY
--------

The enthalpy is H = U + kB*T
                kB is Boltzmann's constant
Total free energy                 ...    -76.25191182 Eh
Thermal Enthalpy correction       ...      0.00094421 Eh       0.59 kcal/mol
-----------------------------------------------------------------------
Total Enthalpy                    ...    -76.25096761 Eh

Note: Rotational entropy computed according to Herzberg
Infrared and Raman Spectra, Chapter V,1, Van Nostrand Reinhold, 1945
Point Group:  Cs, Symmetry Number:   1
Rotational constants in cm-1:    26.332940    14.690903     9.429996

Vibrational entropy computed according to the QRRHO of S. Grimme
Chem.Eur.J. 2012 18 9955

-------
ENTROPY
-------

The entropy contributions are T*S = T*(S(el)+S(vib)+S(rot)+S(trans))
     S(el)   - electronic entropy
     S(vib)  - vibrational entropy
     S(rot)  - rotational entropy
     S(trans)- translational entropy
The entropies will be listed as mutliplied by the temperature to get
units of energy

Electronic entropy                ...      0.00000000 Eh      0.00 kcal/mol
Vibrational entropy               ...      0.00000304 Eh      0.00 kcal/mol
Rotational entropy                ...      0.00563875 Eh      3.54 kcal/mol
Translational entropy             ...      0.01644380 Eh     10.32 kcal/mol
-----------------------------------------------------------------------
Final entropy term                ...      0.02208559 Eh     13.86 kcal/mol

In case the symmetry of your molecule has not been determined correctly
or in case you have a reason to use a different symmetry number we print
out the resulting rotational entropy values for sn=1,12 :
 --------------------------------------------------------
|  sn= 1 | S(rot)=       0.00563875 Eh      3.54 kcal/mol|
|  sn= 2 | S(rot)=       0.00498429 Eh      3.13 kcal/mol|
|  sn= 3 | S(rot)=       0.00460146 Eh      2.89 kcal/mol|
|  sn= 4 | S(rot)=       0.00432984 Eh      2.72 kcal/mol|
|  sn= 5 | S(rot)=       0.00411915 Eh      2.58 kcal/mol|
|  sn= 6 | S(rot)=       0.00394701 Eh      2.48 kcal/mol|
|  sn= 7 | S(rot)=       0.00380146 Eh      2.39 kcal/mol|
|  sn= 8 | S(rot)=       0.00367538 Eh      2.31 kcal/mol|
|  sn= 9 | S(rot)=       0.00356417 Eh      2.24 kcal/mol|
|  sn=10 | S(rot)=       0.00346469 Eh      2.17 kcal/mol|
|  sn=11 | S(rot)=       0.00337470 Eh      2.12 kcal/mol|
|  sn=12 | S(rot)=       0.00329255 Eh      2.07 kcal/mol|
 --------------------------------------------------------

-------------------
GIBBS FREE ENERGY
-------------------

The Gibbs free energy is G = H - T*S

Total enthalpy                    ...    -76.25096761 Eh
Total entropy correction          ...     -0.02208559 Eh    -13.86 kcal/mol
-----------------------------------------------------------------------
Final Gibbs free energy         ...    -76.27305320 Eh

For completeness - the Gibbs free energy minus the electronic energy
G-E(el)                           ...      0.00328089 Eh      2.06 kcal/mol

                             ****ORCA TERMINATED NORMALLY****
TOTAL RUN TIME: 0 days 0 hours 0 minutes 35 seconds 947 msec
