                         Program Version 4.2.1 -  RELEASE  -
|  1> !B3LYP DEF2-SVP OPT FREQ
|  2> * XYZ 0 1
|  3> C         -8.23508        1.75252       -0.00446
|  4> C         -6.80437        2.18360        0.03487
|  5> H         -8.30301        0.65382       -0.15041
|  6> H         -8.75566        2.25995       -0.84350
|  7> H         -8.73273        2.02013        0.95115
|  8> O         -6.52860        3.36373        0.18904
|  9> O         -5.82021        1.26961       -0.09983
| 10> H         -4.88856        1.53058       -0.07686
| 11> **                         ****END OF INPUT****
 Total Charge           Charge          ....    0
 Multiplicity           Mult            ....    1
 Number of Electrons    NEL             ....   32
FINAL SINGLE POINT ENERGY      -228.788081256326
FINAL SINGLE POINT ENERGY      -228.795057853449
FINAL SINGLE POINT ENERGY      -228.797524742909
FINAL SINGLE POINT ENERGY      -228.797711830548
FINAL SINGLE POINT ENERGY      -228.797776816982
FINAL SINGLE POINT ENERGY      -228.797774003184
FINAL SINGLE POINT ENERGY      -228.797780491441
                    ***********************HURRAY********************

CARTESIAN COORDINATES (ANGSTROEM)
---------------------------------
  C     -8.211736    1.728101   -0.008013
  C     -6.782866    2.213722    0.039075
  H     -8.277104    0.642209   -0.150979
  H     -8.734844    2.246734   -0.825990
  H     -8.713867    2.014836    0.929061
  O     -6.446204    3.361473    0.189749
  O     -5.892435    1.209722   -0.107978
  H     -5.009163    1.617144   -0.064925

 Multiplicity           Mult            ....    1
 Number of Electrons    NEL             ....   32
 Basis Dimension        Dim             ....   76

ORBITAL ENERGIES
----------------

  NO   OCC          E(Eh)            E(eV)
   0   2.0000     -19.178500      -521.8735
   1   2.0000     -19.117839      -520.2228
   2   2.0000     -10.315768      -280.7063
   3   2.0000     -10.200436      -277.5680
   4   2.0000      -1.093860       -29.7654
   5   2.0000      -1.000659       -27.2293
   6   2.0000      -0.748227       -20.3603
   7   2.0000      -0.608710       -16.5638
   8   2.0000      -0.483715       -13.1625
   9   2.0000      -0.474381       -12.9086
  10   2.0000      -0.467867       -12.7313
  11   2.0000      -0.408799       -11.1240
  12   2.0000      -0.392170       -10.6715
  13   2.0000      -0.391153       -10.6438
  14   2.0000      -0.318499        -8.6668
  15   2.0000      -0.276014        -7.5107
  16   0.0000       0.009712         0.2643
  17   0.0000       0.053175         1.4470
  18   0.0000       0.082798         2.2530
  19   0.0000       0.123677         3.3654
  20   0.0000       0.138152         3.7593

MULLIKEN ATOMIC CHARGES
-----------------------
   0 C :    0.017670
   1 C :    0.076591
   2 H :    0.034666
   3 H :    0.051954
   4 H :    0.051972
   5 O :   -0.225795
   6 O :   -0.185208
   7 H :    0.178149
Sum of atomic charges:   -0.0000000

LOEWDIN ATOMIC CHARGES
----------------------
   0 C :   -0.075197
   1 C :    0.078319
   2 H :    0.036398
   3 H :    0.051320
   4 H :    0.051278
   5 O :   -0.187708
   6 O :   -0.047456
   7 H :    0.093045

  Mayer bond orders larger than 0.100000
B(  0-C ,  1-C ) :   1.0206 B(  0-C ,  2-H ) :   0.9567 B(  0-C ,  3-H ) :   0.9546
B(  0-C ,  4-H ) :   0.9550 B(  1-C ,  5-O ) :   2.1007 B(  1-C ,  6-O ) :   1.2218
B(  6-O ,  7-H ) :   0.9491

FINAL SINGLE POINT ENERGY      -228.797780596311

DIPOLE MOMENT
-------------
                                X             Y             Z
Electronic contribution:      3.16930       1.23601       0.12493
Nuclear contribution   :     -3.28938      -1.81685      -0.20338
                        -----------------------------------------
Total Dipole Moment    :     -0.12009      -0.58084      -0.07845
                        -----------------------------------------
Magnitude (a.u.)       :      0.59829
Magnitude (Debye)      :      1.52074

VIBRATIONAL FREQUENCIES
-----------------------

Scaling factor for frequencies =  1.000000000  (already applied!)

   0:         0.00 cm**-1
   1:         0.00 cm**-1
   2:         0.00 cm**-1
   3:         0.00 cm**-1
   4:         0.00 cm**-1
   5:         0.00 cm**-1
   6:       -83.36 cm**-1 ***imaginary mode***
   7:       430.82 cm**-1
   8:       549.83 cm**-1
   9:       590.30 cm**-1
  10:       713.68 cm**-1
  11:       868.98 cm**-1
  12:      1003.09 cm**-1
  13:      1050.04 cm**-1
  14:      1212.92 cm**-1
  15:      1340.20 cm**-1
  16:      1390.15 cm**-1
  17:      1448.93 cm**-1
  18:      1456.90 cm**-1
  19:      1866.31 cm**-1
  20:      3052.55 cm**-1
  21:      3132.41 cm**-1
  22:      3168.82 cm**-1
  23:      3734.93 cm**-1

IR SPECTRUM
-----------

 Mode    freq (cm**-1)   T**2         TX         TY         TZ
-------------------------------------------------------------------
   7:       430.82    3.459396  (  0.178845  -1.834308  -0.250451)
   8:       549.83   21.403533  ( -0.052057   0.619353  -4.584455)
   9:       590.30   43.022327  ( -6.375927   1.510877   0.295191)
  10:       713.68  108.125489  (  0.140216  -1.388310  10.304291)
  11:       868.98    4.401127  (  1.644918   1.291211   0.167766)
  12:      1003.09   29.565179  (  3.904739  -3.743070  -0.554631)
  13:      1050.04    8.935889  ( -0.034126   0.398792  -2.962379)
  14:      1212.92  242.039371  (-12.482743   9.180353   1.393417)
  15:      1340.20   13.237895  (  2.998743  -2.036830  -0.311057)
  16:      1390.15   75.648870  ( -8.093226   3.142169   0.524720)
  17:      1448.93    7.757535  ( -0.005583  -0.351371   2.762977)
  18:      1456.90   25.490784  (  5.031838   0.413743   0.014368)
  19:      1866.31  310.482648  ( -2.472373 -17.294292  -2.297276)
  20:      3052.55    0.729942  ( -0.774274  -0.361166   0.000998)
  21:      3132.41    1.751383  (  0.028355  -0.111278   1.318407)
  22:      3168.82    5.163291  (  0.625596   2.168133   0.266685)
  23:      3734.93   60.286511  ( -7.679696  -1.142983  -0.048662)

--------------------------
THERMOCHEMISTRY AT 298.15K
--------------------------

Temperature         ... 298.15 K
Pressure            ... 1.00 atm
Total Mass          ... 60.05 AMU

Throughout the following assumptions are being made:
  (1) The electronic state is orbitally nondegenerate
  (2) There are no thermally accessible electronically excited states
  (3) Hindered rotations indicated by low frequency modes are not
      treated as such but are treated as vibrations and this may
      cause some error
  (4) All equations used are the standard statistical mechanics
      equations for an ideal gas
  (5) All vibrations are strictly harmonic

freq.     430.82  E(vib)   ...       0.18
freq.     549.83  E(vib)   ...       0.12
freq.     590.30  E(vib)   ...       0.10
freq.     713.68  E(vib)   ...       0.07
freq.     868.98  E(vib)   ...       0.04
freq.    1003.09  E(vib)   ...       0.02
freq.    1050.04  E(vib)   ...       0.02
freq.    1212.92  E(vib)   ...       0.01
freq.    1340.20  E(vib)   ...       0.01
freq.    1390.15  E(vib)   ...       0.00
freq.    1448.93  E(vib)   ...       0.00
freq.    1456.90  E(vib)   ...       0.00
freq.    1866.31  E(vib)   ...       0.00
freq.    3052.55  E(vib)   ...       0.00
freq.    3132.41  E(vib)   ...       0.00
freq.    3168.82  E(vib)   ...       0.00
freq.    3734.93  E(vib)   ...       0.00

------------
INNER ENERGY
------------

The inner energy is: U= E(el) + E(ZPE) + E(vib) + E(rot) + E(trans)
    E(el)   - is the total energy from the electronic structure calculation
              = E(kin-el) + E(nuc-el) + E(el-el) + E(nuc-nuc)
    E(ZPE)  - the the zero temperature vibrational energy from the frequency calculation
    E(vib)  - the the finite temperature correction to E(ZPE) due to population
              of excited vibrational states
    E(rot)  - is the rotational thermal energy
    E(trans)- is the translational thermal energy

Summary of contributions to the inner energy U:
Electronic energy                ...   -228.79778060 Eh
Zero point energy                ...      0.06153522 Eh      38.61 kcal/mol
Thermal vibrational correction   ...      0.00091665 Eh       0.58 kcal/mol
Thermal rotational correction    ...      0.00141627 Eh       0.89 kcal/mol
Thermal translational correction ...      0.00141627 Eh       0.89 kcal/mol
-----------------------------------------------------------------------
Total thermal energy                   -228.73249618 Eh

Summary of corrections to the electronic energy:
(perhaps to be used in another calculation)
Total thermal correction                  0.00374919 Eh       2.35 kcal/mol
Non-thermal (ZPE) correction              0.06153522 Eh      38.61 kcal/mol
-----------------------------------------------------------------------
Total correction                          0.06528442 Eh      40.97 kcal/mol

--------
ENTHALPY
--------

The enthalpy is H = U + kB*T
                kB is Boltzmann's constant
Total free energy                 ...   -228.73249618 Eh
Thermal Enthalpy correction       ...      0.00094421 Eh       0.59 kcal/mol
-----------------------------------------------------------------------
Total Enthalpy                    ...   -228.73155197 Eh

Note: Only C1 symmetry has been detected, increase convergence thresholds
      if your molecule has a higher symmetry. Symmetry factor of 1.0 is
      used for the rotational entropy correction.

Note: Rotational entropy computed according to Herzberg
Infrared and Raman Spectra, Chapter V,1, Van Nostrand Reinhold, 1945
Point Group:  C1, Symmetry Number:   1
Rotational constants in cm-1:     0.379928     0.312743     0.177237

Vibrational entropy computed according to the QRRHO of S. Grimme
Chem.Eur.J. 2012 18 9955

-------
ENTROPY
-------

The entropy contributions are T*S = T*(S(el)+S(vib)+S(rot)+S(trans))
     S(el)   - electronic entropy
     S(vib)  - vibrational entropy
     S(rot)  - rotational entropy
     S(trans)- translational entropy
The entropies will be listed as mutliplied by the temperature to get
units of energy

Electronic entropy                ...      0.00000000 Eh      0.00 kcal/mol
Vibrational entropy               ...      0.00123522 Eh      0.78 kcal/mol
Rotational entropy                ...      0.01133327 Eh      7.11 kcal/mol
Translational entropy             ...      0.01814900 Eh     11.39 kcal/mol
-----------------------------------------------------------------------
Final entropy term                ...      0.03071750 Eh     19.28 kcal/mol

In case the symmetry of your molecule has not been determined correctly
or in case you have a reason to use a different symmetry number we print
out the resulting rotational entropy values for sn=1,12 :
 --------------------------------------------------------
|  sn= 1 | S(rot)=       0.01133327 Eh      7.11 kcal/mol|
|  sn= 2 | S(rot)=       0.01067882 Eh      6.70 kcal/mol|
|  sn= 3 | S(rot)=       0.01029599 Eh      6.46 kcal/mol|
|  sn= 4 | S(rot)=       0.01002436 Eh      6.29 kcal/mol|
|  sn= 5 | S(rot)=       0.00981367 Eh      6.16 kcal/mol|
|  sn= 6 | S(rot)=       0.00964153 Eh      6.05 kcal/mol|
|  sn= 7 | S(rot)=       0.00949598 Eh      5.96 kcal/mol|
|  sn= 8 | S(rot)=       0.00936991 Eh      5.88 kcal/mol|
|  sn= 9 | S(rot)=       0.00925870 Eh      5.81 kcal/mol|
|  sn=10 | S(rot)=       0.00915922 Eh      5.75 kcal/mol|
|  sn=11 | S(rot)=       0.00906923 Eh      5.69 kcal/mol|
|  sn=12 | S(rot)=       0.00898707 Eh      5.64 kcal/mol|
 --------------------------------------------------------

-------------------
GIBBS FREE ENERGY
-------------------

The Gibbs free energy is G = H - T*S

Total enthalpy                    ...   -228.73155197 Eh
Total entropy correction          ...     -0.03071750 Eh    -19.28 kcal/mol
-----------------------------------------------------------------------
Final Gibbs free energy         ...   -228.76226947 Eh

For completeness - the Gibbs free energy minus the electronic energy
G-E(el)                           ...      0.03551113 Eh     22.28 kcal/mol

                             ****ORCA TERMINATED NORMALLY****
TOTAL RUN TIME: 0 days 0 hours 2 minutes 21 seconds 853 msec
