                         Program Version 4.2.1 -  RELEASE  -
|  1> !B3LYP OPT FREQ def2-TZVP
|  2> * xyz 0 1
|  3>    O       -4.00000        0.00000        0.00000
|  4>    H       -2.97365        0.00000        0.00000
|  5>    H       -3.99650       -0.97855        0.31165
|  6> *
|  7>
|  8>
|  9>                          ****END OF INPUT****
 Total Charge           Charge          ....    0
 Multiplicity           Mult            ....    1
 Number of Electrons    NEL             ....   10
FINAL SINGLE POINT ENERGY       -76.415343134407
FINAL SINGLE POINT ENERGY       -76.424136289223
FINAL SINGLE POINT ENERGY       -76.425812714720
FINAL SINGLE POINT ENERGY       -76.425912426575
FINAL SINGLE POINT ENERGY       -76.425912747161
                    ***********************HURRAY********************

CARTESIAN COORDINATES (ANGSTROEM)
---------------------------------
  O     -3.932757   -0.064161    0.020434
  H     -2.978546    0.059400   -0.018918
  H     -4.058847   -0.973790    0.310134

 Multiplicity           Mult            ....    1
 Number of Electrons    NEL             ....   10
 Basis Dimension        Dim             ....   43

ORBITAL ENERGIES
----------------

  NO   OCC          E(Eh)            E(eV)
   0   2.0000     -19.123977      -520.3899
   1   2.0000      -1.010474       -27.4964
   2   2.0000      -0.531801       -14.4710
   3   2.0000      -0.387128       -10.5343
   4   2.0000      -0.312896        -8.5143
   5   0.0000       0.016963         0.4616
   6   0.0000       0.091403         2.4872
   7   0.0000       0.360865         9.8196
   8   0.0000       0.409049        11.1308
   9   0.0000       0.427991        11.6462

MULLIKEN ATOMIC CHARGES
-----------------------
   0 O :   -0.628094
   1 H :    0.313697
   2 H :    0.314397
Sum of atomic charges:   -0.0000000

LOEWDIN ATOMIC CHARGES
----------------------
   0 O :   -0.310573
   1 H :    0.155248
   2 H :    0.155324

  Mayer bond orders larger than 0.100000
B(  0-O ,  1-H ) :   0.9120 B(  0-O ,  2-H ) :   0.9110

FINAL SINGLE POINT ENERGY       -76.425912747174

DIPOLE MOMENT
-------------
                                X             Y             Z
Electronic contribution:     -0.11500       0.10987      -0.03456
Nuclear contribution   :      0.68929      -0.65429       0.20838
                        -----------------------------------------
Total Dipole Moment    :      0.57430      -0.54442       0.17382
                        -----------------------------------------
Magnitude (a.u.)       :      0.81020
Magnitude (Debye)      :      2.05936

VIBRATIONAL FREQUENCIES
-----------------------

Scaling factor for frequencies =  1.000000000  (already applied!)

   0:         0.00 cm**-1
   1:         0.00 cm**-1
   2:         0.00 cm**-1
   3:         0.00 cm**-1
   4:         0.00 cm**-1
   5:         0.00 cm**-1
   6:      1616.27 cm**-1
   7:      3782.28 cm**-1
   8:      3887.60 cm**-1

IR SPECTRUM
-----------

 Mode    freq (cm**-1)   T**2         TX         TY         TZ
-------------------------------------------------------------------
   6:      1616.27   80.448622  (  6.352867  -6.029165   1.933619)
   7:      3782.28    4.346190  (  1.505092  -1.373363   0.441318)
   8:      3887.60   43.695217  (  4.654467   4.471167  -1.428223)

--------------------------
THERMOCHEMISTRY AT 298.15K
--------------------------

Temperature         ... 298.15 K
Pressure            ... 1.00 atm
Total Mass          ... 18.02 AMU

Throughout the following assumptions are being made:
  (1) The electronic state is orbitally nondegenerate
  (2) There are no thermally accessible electronically excited states
  (3) Hindered rotations indicated by low frequency modes are not
      treated as such but are treated as vibrations and this may
      cause some error
  (4) All equations used are the standard statistical mechanics
      equations for an ideal gas
  (5) All vibrations are strictly harmonic

freq.    1616.27  E(vib)   ...       0.00
freq.    3782.28  E(vib)   ...       0.00
freq.    3887.60  E(vib)   ...       0.00

------------
INNER ENERGY
------------

The inner energy is: U= E(el) + E(ZPE) + E(vib) + E(rot) + E(trans)
    E(el)   - is the total energy from the electronic structure calculation
              = E(kin-el) + E(nuc-el) + E(el-el) + E(nuc-nuc)
    E(ZPE)  - the the zero temperature vibrational energy from the frequency calculation
    E(vib)  - the the finite temperature correction to E(ZPE) due to population
              of excited vibrational states
    E(rot)  - is the rotational thermal energy
    E(trans)- is the translational thermal energy

Summary of contributions to the inner energy U:
Electronic energy                ...    -76.42591275 Eh
Zero point energy                ...      0.02115541 Eh      13.28 kcal/mol
Thermal vibrational correction   ...      0.00000302 Eh       0.00 kcal/mol
Thermal rotational correction    ...      0.00141627 Eh       0.89 kcal/mol
Thermal translational correction ...      0.00141627 Eh       0.89 kcal/mol
-----------------------------------------------------------------------
Total thermal energy                    -76.40192178 Eh

Summary of corrections to the electronic energy:
(perhaps to be used in another calculation)
Total thermal correction                  0.00283556 Eh       1.78 kcal/mol
Non-thermal (ZPE) correction              0.02115541 Eh      13.28 kcal/mol
-----------------------------------------------------------------------
Total correction                          0.02399097 Eh      15.05 kcal/mol

--------
ENTHALPY
--------

The enthalpy is H = U + kB*T
                kB is Boltzmann's constant
Total free energy                 ...    -76.40192178 Eh
Thermal Enthalpy correction       ...      0.00094421 Eh       0.59 kcal/mol
-----------------------------------------------------------------------
Total Enthalpy                    ...    -76.40097757 Eh

Note: Rotational entropy computed according to Herzberg
Infrared and Raman Spectra, Chapter V,1, Van Nostrand Reinhold, 1945
Point Group:  Cs, Symmetry Number:   1
Rotational constants in cm-1:    27.564031    14.276764     9.405299

Vibrational entropy computed according to the QRRHO of S. Grimme
Chem.Eur.J. 2012 18 9955

-------
ENTROPY
-------

The entropy contributions are T*S = T*(S(el)+S(vib)+S(rot)+S(trans))
     S(el)   - electronic entropy
     S(vib)  - vibrational entropy
     S(rot)  - rotational entropy
     S(trans)- translational entropy
The entropies will be listed as mutliplied by the temperature to get
units of energy

Electronic entropy                ...      0.00000000 Eh      0.00 kcal/mol
Vibrational entropy               ...      0.00000341 Eh      0.00 kcal/mol
Rotational entropy                ...      0.00563192 Eh      3.53 kcal/mol
Translational entropy             ...      0.01644380 Eh     10.32 kcal/mol
-----------------------------------------------------------------------
Final entropy term                ...      0.02207913 Eh     13.85 kcal/mol

In case the symmetry of your molecule has not been determined correctly
or in case you have a reason to use a different symmetry number we print
out the resulting rotational entropy values for sn=1,12 :
 --------------------------------------------------------
|  sn= 1 | S(rot)=       0.00563192 Eh      3.53 kcal/mol|
|  sn= 2 | S(rot)=       0.00497746 Eh      3.12 kcal/mol|
|  sn= 3 | S(rot)=       0.00459463 Eh      2.88 kcal/mol|
|  sn= 4 | S(rot)=       0.00432300 Eh      2.71 kcal/mol|
|  sn= 5 | S(rot)=       0.00411232 Eh      2.58 kcal/mol|
|  sn= 6 | S(rot)=       0.00394017 Eh      2.47 kcal/mol|
|  sn= 7 | S(rot)=       0.00379463 Eh      2.38 kcal/mol|
|  sn= 8 | S(rot)=       0.00366855 Eh      2.30 kcal/mol|
|  sn= 9 | S(rot)=       0.00355734 Eh      2.23 kcal/mol|
|  sn=10 | S(rot)=       0.00345786 Eh      2.17 kcal/mol|
|  sn=11 | S(rot)=       0.00336787 Eh      2.11 kcal/mol|
|  sn=12 | S(rot)=       0.00328572 Eh      2.06 kcal/mol|
 --------------------------------------------------------

-------------------
GIBBS FREE ENERGY
-------------------

The Gibbs free energy is G = H - T*S

Total enthalpy                    ...    -76.40097757 Eh
Total entropy correction          ...     -0.02207913 Eh    -13.85 kcal/mol
-----------------------------------------------------------------------
Final Gibbs free energy         ...    -76.42305670 Eh

For completeness - the Gibbs free energy minus the electronic energy
G-E(el)                           ...      0.00285605 Eh      1.79 kcal/mol

                             ****ORCA TERMINATED NORMALLY****
TOTAL RUN TIME: 0 days 0 hours 0 minutes 37 seconds 481 msec
