                         Program Version 4.2.1 -  RELEASE  -
|  1> !B3LYP DEF2-SVP FREQ
|  2> !VERYTIGHTOPT
|  3> * XYZ 0 1
|  4> C         -8.23508        1.75252       -0.00446
|  5> C         -6.80437        2.18360        0.03487
|  6> H         -8.30301        0.65382       -0.15041
|  7> H         -8.75566        2.25995       -0.84350
|  8> H         -8.73273        2.02013        0.95115
|  9> O         -6.52860        3.36373        0.18904
| 10> O         -5.82021        1.26961       -0.09983
| 11> H         -4.88856        1.53058       -0.07686
| 12> **                         ****END OF INPUT****
 Total Charge           Charge          ....    0
 Multiplicity           Mult            ....    1
 Number of Electrons    NEL             ....   32
FINAL SINGLE POINT ENERGY      -228.788081256735
FINAL SINGLE POINT ENERGY      -228.795057861126
FINAL SINGLE POINT ENERGY      -228.797524745901
FINAL SINGLE POINT ENERGY      -228.797711833675
FINAL SINGLE POINT ENERGY      -228.797776849067
FINAL SINGLE POINT ENERGY      -228.797774103593
FINAL SINGLE POINT ENERGY      -228.797780494081
FINAL SINGLE POINT ENERGY      -228.797780596833
FINAL SINGLE POINT ENERGY      -228.797780636067
FINAL SINGLE POINT ENERGY      -228.797780664866
FINAL SINGLE POINT ENERGY      -228.798168352623
FINAL SINGLE POINT ENERGY      -228.798269837703
FINAL SINGLE POINT ENERGY      -228.798345888160
FINAL SINGLE POINT ENERGY      -228.798390772473
FINAL SINGLE POINT ENERGY      -228.798409597872
FINAL SINGLE POINT ENERGY      -228.798416348061
FINAL SINGLE POINT ENERGY      -228.798417072755
FINAL SINGLE POINT ENERGY      -228.798417014300
FINAL SINGLE POINT ENERGY      -228.798416977380
                    ***********************HURRAY********************

CARTESIAN COORDINATES (ANGSTROEM)
---------------------------------
  C     -8.215795    1.747651    0.006627
  C     -6.780116    2.175487    0.176181
  H     -8.336900    0.702882    0.333197
  H     -8.495026    1.787828   -1.057969
  H     -8.868373    2.404449    0.593217
  O     -6.391945    3.099718    0.845370
  O     -5.938312    1.386471   -0.528019
  H     -5.041754    1.729452   -0.368604

 Multiplicity           Mult            ....    1
 Number of Electrons    NEL             ....   32
 Basis Dimension        Dim             ....   76

ORBITAL ENERGIES
----------------

  NO   OCC          E(Eh)            E(eV)
   0   2.0000     -19.177026      -521.8334
   1   2.0000     -19.120026      -520.2824
   2   2.0000     -10.315790      -280.7069
   3   2.0000     -10.200126      -277.5595
   4   2.0000      -1.093430       -29.7537
   5   2.0000      -1.001048       -27.2399
   6   2.0000      -0.749261       -20.3884
   7   2.0000      -0.606896       -16.5145
   8   2.0000      -0.484501       -13.1839
   9   2.0000      -0.473768       -12.8919
  10   2.0000      -0.468539       -12.7496
  11   2.0000      -0.409561       -11.1447
  12   2.0000      -0.391795       -10.6613
  13   2.0000      -0.390740       -10.6326
  14   2.0000      -0.320282        -8.7153
  15   2.0000      -0.276441        -7.5223
  16   0.0000       0.010048         0.2734
  17   0.0000       0.053568         1.4577
  18   0.0000       0.081004         2.2042
  19   0.0000       0.127394         3.4666
  20   0.0000       0.136437         3.7126

MULLIKEN ATOMIC CHARGES
-----------------------
   0 C :    0.025533
   1 C :    0.075613
   2 H :    0.045039
   3 H :    0.045759
   4 H :    0.040678
   5 O :   -0.218023
   6 O :   -0.193382
   7 H :    0.178783
Sum of atomic charges:   -0.0000000

LOEWDIN ATOMIC CHARGES
----------------------
   0 C :   -0.073214
   1 C :    0.077860
   2 H :    0.047703
   3 H :    0.047649
   4 H :    0.041509
   5 O :   -0.181435
   6 O :   -0.053072
   7 H :    0.092999

  Mayer bond orders larger than 0.100000
B(  0-C ,  1-C ) :   1.0231 B(  0-C ,  2-H ) :   0.9495 B(  0-C ,  3-H ) :   0.9511
B(  0-C ,  4-H ) :   0.9646 B(  1-C ,  5-O ) :   2.1169 B(  1-C ,  6-O ) :   1.2005
B(  6-O ,  7-H ) :   0.9497

FINAL SINGLE POINT ENERGY      -228.798416976440

DIPOLE MOMENT
-------------
                                X             Y             Z
Electronic contribution:      3.17797       1.13009       0.51645
Nuclear contribution   :     -3.30290      -1.62762      -0.89087
                        -----------------------------------------
Total Dipole Moment    :     -0.12493      -0.49753      -0.37442
                        -----------------------------------------
Magnitude (a.u.)       :      0.63508
Magnitude (Debye)      :      1.61426

VIBRATIONAL FREQUENCIES
-----------------------

Scaling factor for frequencies =  1.000000000  (already applied!)

   0:         0.00 cm**-1
   1:         0.00 cm**-1
   2:         0.00 cm**-1
   3:         0.00 cm**-1
   4:         0.00 cm**-1
   5:         0.00 cm**-1
   6:        78.78 cm**-1
   7:       423.81 cm**-1
   8:       543.81 cm**-1
   9:       593.85 cm**-1
  10:       681.82 cm**-1
  11:       873.65 cm**-1
  12:       992.10 cm**-1
  13:      1053.90 cm**-1
  14:      1215.40 cm**-1
  15:      1337.08 cm**-1
  16:      1407.84 cm**-1
  17:      1439.93 cm**-1
  18:      1448.39 cm**-1
  19:      1869.17 cm**-1
  20:      3050.29 cm**-1
  21:      3126.28 cm**-1
  22:      3181.84 cm**-1
  23:      3742.49 cm**-1

IR SPECTRUM
-----------

 Mode    freq (cm**-1)   T**2         TX         TY         TZ
-------------------------------------------------------------------
   6:        78.78    0.817816  (  0.083169  -0.548537   0.714146)
   7:       423.81    3.784868  (  0.610865  -1.415919  -1.186122)
   8:       543.81   20.862723  (  0.387871  -2.774006   3.607931)
   9:       593.85   42.853217  (  6.308428  -0.972736  -1.452838)
  10:       681.82   99.359875  ( -0.938517   6.060552  -7.858039)
  11:       873.65    3.945759  ( -1.786538  -0.762392  -0.415689)
  12:       992.10   46.459450  ( -5.135654   3.243441   3.092669)
  13:      1053.90   10.211725  ( -0.296588   1.929844  -2.529716)
  14:      1215.40  213.139761  ( 11.040656  -6.929066  -6.575084)
  15:      1337.08   15.680395  (  2.404904  -2.353251  -2.087831)
  16:      1407.84   96.754984  ( -9.389218   1.718451   2.375814)
  17:      1439.93   12.736417  (  1.869794   2.519291   1.701017)
  18:      1448.39    9.710253  (  0.264821  -1.890667   2.462823)
  19:      1869.17  307.172692  ( -3.084050 -13.814690 -10.335166)
  20:      3050.29    1.137467  (  0.785542   0.601560   0.398142)
  21:      3126.28    2.935363  (  0.133405  -1.062182   1.337660)
  22:      3181.84    2.684379  ( -0.933911   1.017826   0.881033)
  23:      3742.49   61.860480  ( -7.769426  -1.223095  -0.023107)

--------------------------
THERMOCHEMISTRY AT 298.15K
--------------------------

Temperature         ... 298.15 K
Pressure            ... 1.00 atm
Total Mass          ... 60.05 AMU

Throughout the following assumptions are being made:
  (1) The electronic state is orbitally nondegenerate
  (2) There are no thermally accessible electronically excited states
  (3) Hindered rotations indicated by low frequency modes are not
      treated as such but are treated as vibrations and this may
      cause some error
  (4) All equations used are the standard statistical mechanics
      equations for an ideal gas
  (5) All vibrations are strictly harmonic

freq.      78.78  E(vib)   ...       0.49
freq.     423.81  E(vib)   ...       0.18
freq.     543.81  E(vib)   ...       0.12
freq.     593.85  E(vib)   ...       0.10
freq.     681.82  E(vib)   ...       0.08
freq.     873.65  E(vib)   ...       0.04
freq.     992.10  E(vib)   ...       0.02
freq.    1053.90  E(vib)   ...       0.02
freq.    1215.40  E(vib)   ...       0.01
freq.    1337.08  E(vib)   ...       0.01
freq.    1407.84  E(vib)   ...       0.00
freq.    1439.93  E(vib)   ...       0.00
freq.    1448.39  E(vib)   ...       0.00
freq.    1869.17  E(vib)   ...       0.00
freq.    3050.29  E(vib)   ...       0.00
freq.    3126.28  E(vib)   ...       0.00
freq.    3181.84  E(vib)   ...       0.00
freq.    3742.49  E(vib)   ...       0.00

------------
INNER ENERGY
------------

The inner energy is: U= E(el) + E(ZPE) + E(vib) + E(rot) + E(trans)
    E(el)   - is the total energy from the electronic structure calculation
              = E(kin-el) + E(nuc-el) + E(el-el) + E(nuc-nuc)
    E(ZPE)  - the the zero temperature vibrational energy from the frequency calculation
    E(vib)  - the the finite temperature correction to E(ZPE) due to population
              of excited vibrational states
    E(rot)  - is the rotational thermal energy
    E(trans)- is the translational thermal energy

Summary of contributions to the inner energy U:
Electronic energy                ...   -228.79841698 Eh
Zero point energy                ...      0.06164823 Eh      38.68 kcal/mol
Thermal vibrational correction   ...      0.00171377 Eh       1.08 kcal/mol
Thermal rotational correction    ...      0.00141627 Eh       0.89 kcal/mol
Thermal translational correction ...      0.00141627 Eh       0.89 kcal/mol
-----------------------------------------------------------------------
Total thermal energy                   -228.73222243 Eh

Summary of corrections to the electronic energy:
(perhaps to be used in another calculation)
Total thermal correction                  0.00454632 Eh       2.85 kcal/mol
Non-thermal (ZPE) correction              0.06164823 Eh      38.68 kcal/mol
-----------------------------------------------------------------------
Total correction                          0.06619454 Eh      41.54 kcal/mol

--------
ENTHALPY
--------

The enthalpy is H = U + kB*T
                kB is Boltzmann's constant
Total free energy                 ...   -228.73222243 Eh
Thermal Enthalpy correction       ...      0.00094421 Eh       0.59 kcal/mol
-----------------------------------------------------------------------
Total Enthalpy                    ...   -228.73127823 Eh

Note: Only C1 symmetry has been detected, increase convergence thresholds
      if your molecule has a higher symmetry. Symmetry factor of 1.0 is
      used for the rotational entropy correction.

Note: Rotational entropy computed according to Herzberg
Infrared and Raman Spectra, Chapter V,1, Van Nostrand Reinhold, 1945
Point Group:  C1, Symmetry Number:   1
Rotational constants in cm-1:     0.379048     0.314148     0.177500

Vibrational entropy computed according to the QRRHO of S. Grimme
Chem.Eur.J. 2012 18 9955

-------
ENTROPY
-------

The entropy contributions are T*S = T*(S(el)+S(vib)+S(rot)+S(trans))
     S(el)   - electronic entropy
     S(vib)  - vibrational entropy
     S(rot)  - rotational entropy
     S(trans)- translational entropy
The entropies will be listed as mutliplied by the temperature to get
units of energy

Electronic entropy                ...      0.00000000 Eh      0.00 kcal/mol
Vibrational entropy               ...      0.00284596 Eh      1.79 kcal/mol
Rotational entropy                ...      0.01133155 Eh      7.11 kcal/mol
Translational entropy             ...      0.01814900 Eh     11.39 kcal/mol
-----------------------------------------------------------------------
Final entropy term                ...      0.03232651 Eh     20.29 kcal/mol

In case the symmetry of your molecule has not been determined correctly
or in case you have a reason to use a different symmetry number we print
out the resulting rotational entropy values for sn=1,12 :
 --------------------------------------------------------
|  sn= 1 | S(rot)=       0.01133155 Eh      7.11 kcal/mol|
|  sn= 2 | S(rot)=       0.01067710 Eh      6.70 kcal/mol|
|  sn= 3 | S(rot)=       0.01029426 Eh      6.46 kcal/mol|
|  sn= 4 | S(rot)=       0.01002264 Eh      6.29 kcal/mol|
|  sn= 5 | S(rot)=       0.00981195 Eh      6.16 kcal/mol|
|  sn= 6 | S(rot)=       0.00963981 Eh      6.05 kcal/mol|
|  sn= 7 | S(rot)=       0.00949426 Eh      5.96 kcal/mol|
|  sn= 8 | S(rot)=       0.00936818 Eh      5.88 kcal/mol|
|  sn= 9 | S(rot)=       0.00925698 Eh      5.81 kcal/mol|
|  sn=10 | S(rot)=       0.00915750 Eh      5.75 kcal/mol|
|  sn=11 | S(rot)=       0.00906751 Eh      5.69 kcal/mol|
|  sn=12 | S(rot)=       0.00898535 Eh      5.64 kcal/mol|
 --------------------------------------------------------

-------------------
GIBBS FREE ENERGY
-------------------

The Gibbs free energy is G = H - T*S

Total enthalpy                    ...   -228.73127823 Eh
Total entropy correction          ...     -0.03232651 Eh    -20.29 kcal/mol
-----------------------------------------------------------------------
Final Gibbs free energy         ...   -228.76360474 Eh

For completeness - the Gibbs free energy minus the electronic energy
G-E(el)                           ...      0.03481224 Eh     21.84 kcal/mol

                             ****ORCA TERMINATED NORMALLY****
TOTAL RUN TIME: 0 days 0 hours 7 minutes 17 seconds 466 msec
