                         Program Version 4.2.1 -  RELEASE  -
|  1> !MP2 OPT NUMFREQ def2-TZVP
|  2> * xyz 0 1
|  3>    O       -4.00000        0.00000        0.00000
|  4>    H       -2.97365        0.00000        0.00000
|  5>    H       -3.99650       -0.97855        0.31165
|  6> *
|  7>
|  8>
|  9>                          ****END OF INPUT****
 Total Charge           Charge          ....    0
 Multiplicity           Mult            ....    1
 Number of Electrons    NEL             ....   10
MP2 TOTAL ENERGY:      -76.302826453 Eh
FINAL SINGLE POINT ENERGY       -76.302826453146
MP2 TOTAL ENERGY:      -76.311320436 Eh
FINAL SINGLE POINT ENERGY       -76.311320435921
MP2 TOTAL ENERGY:      -76.312931123 Eh
FINAL SINGLE POINT ENERGY       -76.312931122766
MP2 TOTAL ENERGY:      -76.313055751 Eh
FINAL SINGLE POINT ENERGY       -76.313055751406
MP2 TOTAL ENERGY:      -76.313056118 Eh
FINAL SINGLE POINT ENERGY       -76.313056118096
                    ***********************HURRAY********************

CARTESIAN COORDINATES (ANGSTROEM)
---------------------------------
  O     -3.934635   -0.062358    0.019860
  H     -2.980423    0.055818   -0.017777
  H     -4.055093   -0.972010    0.309567

 Multiplicity           Mult            ....    1
 Number of Electrons    NEL             ....   10
 Basis Dimension        Dim             ....   43

ORBITAL ENERGIES
----------------

  NO   OCC          E(Eh)            E(eV)
   0   2.0000     -20.560586      -559.4820
   1   2.0000      -1.347121       -36.6570
   2   2.0000      -0.712217       -19.3804
   3   2.0000      -0.580180       -15.7875
   4   2.0000      -0.507618       -13.8130
   5   0.0000       0.127175         3.4606
   6   0.0000       0.196993         5.3605
   7   0.0000       0.522651        14.2221
   8   0.0000       0.565560        15.3897
   9   0.0000       0.597386        16.2557

MULLIKEN ATOMIC CHARGES
-----------------------
   0 O :   -0.672479
   1 H :    0.336239
   2 H :    0.336240
Sum of atomic charges:    0.0000000

LOEWDIN ATOMIC CHARGES
----------------------
   0 O :   -0.319454
   1 H :    0.159726
   2 H :    0.159728

  Mayer bond orders larger than 0.100000
B(  0-O ,  1-H ) :   0.8557 B(  0-O ,  2-H ) :   0.8557

MP2 TOTAL ENERGY:      -76.313056128 Eh
FINAL SINGLE POINT ENERGY       -76.313056127550

DIPOLE MOMENT
-------------
                                X             Y             Z
Electronic contribution:     -0.10548       0.10013      -0.03189
Nuclear contribution   :      0.69398      -0.65879       0.20981
                        -----------------------------------------
Total Dipole Moment    :      0.58851      -0.55867       0.17793
                        -----------------------------------------
Magnitude (a.u.)       :      0.83073
Magnitude (Debye)      :      2.11155

VIBRATIONAL FREQUENCIES
-----------------------

Scaling factor for frequencies =  1.000000000 (already applied!)

   0:         0.00 cm**-1
   1:         0.00 cm**-1
   2:         0.00 cm**-1
   3:         0.00 cm**-1
   4:         0.00 cm**-1
   5:         0.00 cm**-1
   6:      1613.48 cm**-1
   7:      3818.47 cm**-1
   8:      3945.55 cm**-1

IR SPECTRUM
-----------

 Mode    freq (cm**-1)   T**2         TX         TY         TZ
-------------------------------------------------------------------
   6:      1613.48   81.009564  (  6.376493  -6.053730   1.924127)
   7:      3818.47    8.826387  (  2.104928  -1.997160   0.637976)
   8:      3945.55   60.814144  (  5.504988   5.262880  -1.676707)

--------------------------
THERMOCHEMISTRY AT 298.15K
--------------------------

Temperature         ... 298.15 K
Pressure            ... 1.00 atm
Total Mass          ... 18.02 AMU

Throughout the following assumptions are being made:
  (1) The electronic state is orbitally nondegenerate
  (2) There are no thermally accessible electronically excited states
  (3) Hindered rotations indicated by low frequency modes are not
      treated as such but are treated as vibrations and this may
      cause some error
  (4) All equations used are the standard statistical mechanics
      equations for an ideal gas
  (5) All vibrations are strictly harmonic

freq.    1613.48  E(vib)   ...       0.00
freq.    3818.47  E(vib)   ...       0.00
freq.    3945.55  E(vib)   ...       0.00

------------
INNER ENERGY
------------

The inner energy is: U= E(el) + E(ZPE) + E(vib) + E(rot) + E(trans)
    E(el)   - is the total energy from the electronic structure calculation
              = E(kin-el) + E(nuc-el) + E(el-el) + E(nuc-nuc)
    E(ZPE)  - the the zero temperature vibrational energy from the frequency calculation
    E(vib)  - the the finite temperature correction to E(ZPE) due to population
              of excited vibrational states
    E(rot)  - is the rotational thermal energy
    E(trans)- is the translational thermal energy

Summary of contributions to the inner energy U:
Electronic energy                ...    -76.31305613 Eh
Zero point energy                ...      0.02136350 Eh      13.41 kcal/mol
Thermal vibrational correction   ...      0.00000306 Eh       0.00 kcal/mol
Thermal rotational correction    ...      0.00141627 Eh       0.89 kcal/mol
Thermal translational correction ...      0.00141627 Eh       0.89 kcal/mol
-----------------------------------------------------------------------
Total thermal energy                    -76.28885702 Eh

Summary of corrections to the electronic energy:
(perhaps to be used in another calculation)
Total thermal correction                  0.00283560 Eh       1.78 kcal/mol
Non-thermal (ZPE) correction              0.02136350 Eh      13.41 kcal/mol
-----------------------------------------------------------------------
Total correction                          0.02419910 Eh      15.19 kcal/mol

--------
ENTHALPY
--------

The enthalpy is H = U + kB*T
                kB is Boltzmann's constant
Total free energy                 ...    -76.28885702 Eh
Thermal Enthalpy correction       ...      0.00094421 Eh       0.59 kcal/mol
-----------------------------------------------------------------------
Total Enthalpy                    ...    -76.28791282 Eh

Note: Rotational entropy computed according to Herzberg
Infrared and Raman Spectra, Chapter V,1, Van Nostrand Reinhold, 1945
Point Group:  Cs, Symmetry Number:   1
Rotational constants in cm-1:    27.190650    14.426444     9.425559

Vibrational entropy computed according to the QRRHO of S. Grimme
Chem.Eur.J. 2012 18 9955

-------
ENTROPY
-------

The entropy contributions are T*S = T*(S(el)+S(vib)+S(rot)+S(trans))
     S(el)   - electronic entropy
     S(vib)  - vibrational entropy
     S(rot)  - rotational entropy
     S(trans)- translational entropy
The entropies will be listed as mutliplied by the temperature to get
units of energy

Electronic entropy                ...      0.00000000 Eh      0.00 kcal/mol
Vibrational entropy               ...      0.00000345 Eh      0.00 kcal/mol
Rotational entropy                ...      0.00563242 Eh      3.53 kcal/mol
Translational entropy             ...      0.01644380 Eh     10.32 kcal/mol
-----------------------------------------------------------------------
Final entropy term                ...      0.02207967 Eh     13.86 kcal/mol

In case the symmetry of your molecule has not been determined correctly
or in case you have a reason to use a different symmetry number we print
out the resulting rotational entropy values for sn=1,12 :
 --------------------------------------------------------
|  sn= 1 | S(rot)=       0.00563242 Eh      3.53 kcal/mol|
|  sn= 2 | S(rot)=       0.00497796 Eh      3.12 kcal/mol|
|  sn= 3 | S(rot)=       0.00459513 Eh      2.88 kcal/mol|
|  sn= 4 | S(rot)=       0.00432350 Eh      2.71 kcal/mol|
|  sn= 5 | S(rot)=       0.00411282 Eh      2.58 kcal/mol|
|  sn= 6 | S(rot)=       0.00394067 Eh      2.47 kcal/mol|
|  sn= 7 | S(rot)=       0.00379513 Eh      2.38 kcal/mol|
|  sn= 8 | S(rot)=       0.00366905 Eh      2.30 kcal/mol|
|  sn= 9 | S(rot)=       0.00355784 Eh      2.23 kcal/mol|
|  sn=10 | S(rot)=       0.00345836 Eh      2.17 kcal/mol|
|  sn=11 | S(rot)=       0.00336837 Eh      2.11 kcal/mol|
|  sn=12 | S(rot)=       0.00328621 Eh      2.06 kcal/mol|
 --------------------------------------------------------

-------------------
GIBBS FREE ENERGY
-------------------

The Gibbs free energy is G = H - T*S

Total enthalpy                    ...    -76.28791282 Eh
Total entropy correction          ...     -0.02207967 Eh    -13.86 kcal/mol
-----------------------------------------------------------------------
Final Gibbs free energy         ...    -76.30999248 Eh

For completeness - the Gibbs free energy minus the electronic energy
G-E(el)                           ...      0.00306364 Eh      1.92 kcal/mol

                             ****ORCA TERMINATED NORMALLY****
TOTAL RUN TIME: 0 days 0 hours 3 minutes 32 seconds 706 msec
