                         Program Version 4.2.1 -  RELEASE  -
|  1> !PBE0 OPT FREQ def2-TZVP
|  2> * xyz 0 1
|  3>    O       -4.00000        0.00000        0.00000
|  4>    H       -2.97365        0.00000        0.00000
|  5>    H       -3.99650       -0.97855        0.31165
|  6> *
|  7>
|  8>
|  9>                          ****END OF INPUT****
 Total Charge           Charge          ....    0
 Multiplicity           Mult            ....    1
 Number of Electrons    NEL             ....   10
FINAL SINGLE POINT ENERGY       -76.366054469893
FINAL SINGLE POINT ENERGY       -76.375543019770
FINAL SINGLE POINT ENERGY       -76.377201182749
FINAL SINGLE POINT ENERGY       -76.377325926172
FINAL SINGLE POINT ENERGY       -76.377326508845
                    ***********************HURRAY********************

CARTESIAN COORDINATES (ANGSTROEM)
---------------------------------
  O     -3.932335   -0.064560    0.020561
  H     -2.981310    0.057157   -0.018203
  H     -4.056505   -0.971147    0.309292

 Multiplicity           Mult            ....    1
 Number of Electrons    NEL             ....   10
 Basis Dimension        Dim             ....   43

ORBITAL ENERGIES
----------------

  NO   OCC          E(Eh)            E(eV)
   0   2.0000     -19.201430      -522.4975
   1   2.0000      -1.038820       -28.2677
   2   2.0000      -0.546808       -14.8794
   3   2.0000      -0.402336       -10.9481
   4   2.0000      -0.326786        -8.8923
   5   0.0000       0.031959         0.8696
   6   0.0000       0.106125         2.8878
   7   0.0000       0.375440        10.2162
   8   0.0000       0.424463        11.5502
   9   0.0000       0.445260        12.1161

MULLIKEN ATOMIC CHARGES
-----------------------
   0 O :   -0.643097
   1 H :    0.321194
   2 H :    0.321903
Sum of atomic charges:   -0.0000000

LOEWDIN ATOMIC CHARGES
----------------------
   0 O :   -0.307275
   1 H :    0.153599
   2 H :    0.153676

  Mayer bond orders larger than 0.100000
B(  0-O ,  1-H ) :   0.9090 B(  0-O ,  2-H ) :   0.9080

FINAL SINGLE POINT ENERGY       -76.377326510645

DIPOLE MOMENT
-------------
                                X             Y             Z
Electronic contribution:     -0.11268       0.10763      -0.03385
Nuclear contribution   :      0.68824      -0.65329       0.20806
                        -----------------------------------------
Total Dipole Moment    :      0.57556      -0.54567       0.17422
                        -----------------------------------------
Magnitude (a.u.)       :      0.81202
Magnitude (Debye)      :      2.06398

VIBRATIONAL FREQUENCIES
-----------------------

Scaling factor for frequencies =  1.000000000  (already applied!)

   0:         0.00 cm**-1
   1:         0.00 cm**-1
   2:         0.00 cm**-1
   3:         0.00 cm**-1
   4:         0.00 cm**-1
   5:         0.00 cm**-1
   6:      1622.90 cm**-1
   7:      3851.65 cm**-1
   8:      3959.54 cm**-1

IR SPECTRUM
-----------

 Mode    freq (cm**-1)   T**2         TX         TY         TZ
-------------------------------------------------------------------
   6:      1622.90   81.796495  (  6.405628  -6.079752   1.949625)
   7:      3851.65    6.394063  (  1.819025  -1.672741   0.535864)
   8:      3959.54   50.054658  (  4.980768   4.786451  -1.528562)

--------------------------
THERMOCHEMISTRY AT 298.15K
--------------------------

Temperature         ... 298.15 K
Pressure            ... 1.00 atm
Total Mass          ... 18.02 AMU

Throughout the following assumptions are being made:
  (1) The electronic state is orbitally nondegenerate
  (2) There are no thermally accessible electronically excited states
  (3) Hindered rotations indicated by low frequency modes are not
      treated as such but are treated as vibrations and this may
      cause some error
  (4) All equations used are the standard statistical mechanics
      equations for an ideal gas
  (5) All vibrations are strictly harmonic

freq.    1622.90  E(vib)   ...       0.00
freq.    3851.65  E(vib)   ...       0.00
freq.    3959.54  E(vib)   ...       0.00

------------
INNER ENERGY
------------

The inner energy is: U= E(el) + E(ZPE) + E(vib) + E(rot) + E(trans)
    E(el)   - is the total energy from the electronic structure calculation
              = E(kin-el) + E(nuc-el) + E(el-el) + E(nuc-nuc)
    E(ZPE)  - the the zero temperature vibrational energy from the frequency calculation
    E(vib)  - the the finite temperature correction to E(ZPE) due to population
              of excited vibrational states
    E(rot)  - is the rotational thermal energy
    E(trans)- is the translational thermal energy

Summary of contributions to the inner energy U:
Electronic energy                ...    -76.37732651 Eh
Zero point energy                ...      0.02149244 Eh      13.49 kcal/mol
Thermal vibrational correction   ...      0.00000294 Eh       0.00 kcal/mol
Thermal rotational correction    ...      0.00141627 Eh       0.89 kcal/mol
Thermal translational correction ...      0.00141627 Eh       0.89 kcal/mol
-----------------------------------------------------------------------
Total thermal energy                    -76.35299859 Eh

Summary of corrections to the electronic energy:
(perhaps to be used in another calculation)
Total thermal correction                  0.00283548 Eh       1.78 kcal/mol
Non-thermal (ZPE) correction              0.02149244 Eh      13.49 kcal/mol
-----------------------------------------------------------------------
Total correction                          0.02432792 Eh      15.27 kcal/mol

--------
ENTHALPY
--------

The enthalpy is H = U + kB*T
                kB is Boltzmann's constant
Total free energy                 ...    -76.35299859 Eh
Thermal Enthalpy correction       ...      0.00094421 Eh       0.59 kcal/mol
-----------------------------------------------------------------------
Total Enthalpy                    ...    -76.35205438 Eh

Note: Rotational entropy computed according to Herzberg
Infrared and Raman Spectra, Chapter V,1, Van Nostrand Reinhold, 1945
Point Group:  Cs, Symmetry Number:   1
Rotational constants in cm-1:    27.648385    14.412729     9.474040

Vibrational entropy computed according to the QRRHO of S. Grimme
Chem.Eur.J. 2012 18 9955

-------
ENTROPY
-------

The entropy contributions are T*S = T*(S(el)+S(vib)+S(rot)+S(trans))
     S(el)   - electronic entropy
     S(vib)  - vibrational entropy
     S(rot)  - rotational entropy
     S(trans)- translational entropy
The entropies will be listed as mutliplied by the temperature to get
units of energy

Electronic entropy                ...      0.00000000 Eh      0.00 kcal/mol
Vibrational entropy               ...      0.00000331 Eh      0.00 kcal/mol
Rotational entropy                ...      0.00562256 Eh      3.53 kcal/mol
Translational entropy             ...      0.01644380 Eh     10.32 kcal/mol
-----------------------------------------------------------------------
Final entropy term                ...      0.02206968 Eh     13.85 kcal/mol

In case the symmetry of your molecule has not been determined correctly
or in case you have a reason to use a different symmetry number we print
out the resulting rotational entropy values for sn=1,12 :
 --------------------------------------------------------
|  sn= 1 | S(rot)=       0.00562256 Eh      3.53 kcal/mol|
|  sn= 2 | S(rot)=       0.00496811 Eh      3.12 kcal/mol|
|  sn= 3 | S(rot)=       0.00458527 Eh      2.88 kcal/mol|
|  sn= 4 | S(rot)=       0.00431365 Eh      2.71 kcal/mol|
|  sn= 5 | S(rot)=       0.00410296 Eh      2.57 kcal/mol|
|  sn= 6 | S(rot)=       0.00393082 Eh      2.47 kcal/mol|
|  sn= 7 | S(rot)=       0.00378527 Eh      2.38 kcal/mol|
|  sn= 8 | S(rot)=       0.00365919 Eh      2.30 kcal/mol|
|  sn= 9 | S(rot)=       0.00354798 Eh      2.23 kcal/mol|
|  sn=10 | S(rot)=       0.00344851 Eh      2.16 kcal/mol|
|  sn=11 | S(rot)=       0.00335852 Eh      2.11 kcal/mol|
|  sn=12 | S(rot)=       0.00327636 Eh      2.06 kcal/mol|
 --------------------------------------------------------

-------------------
GIBBS FREE ENERGY
-------------------

The Gibbs free energy is G = H - T*S

Total enthalpy                    ...    -76.35205438 Eh
Total entropy correction          ...     -0.02206968 Eh    -13.85 kcal/mol
-----------------------------------------------------------------------
Final Gibbs free energy         ...    -76.37412406 Eh

For completeness - the Gibbs free energy minus the electronic energy
G-E(el)                           ...      0.00320245 Eh      2.01 kcal/mol

                             ****ORCA TERMINATED NORMALLY****
TOTAL RUN TIME: 0 days 0 hours 0 minutes 44 seconds 151 msec
