                         Program Version 4.2.1 -  RELEASE  -
|  1> ! PBE0 OPT FREQ def2-SVP
|  2> * xyz 0 1
|  3>    C       -2.08845       -1.63640       -0.00341
|  4>    C       -0.80164       -0.85740       -0.03791
|  5>    H       -2.88872       -1.04100       -0.45128
|  6>    H       -2.34080       -1.87543        1.03226
|  7>    H       -1.98265       -2.55764       -0.58227
|  8>    C        0.47611       -1.64987        0.01777
|  9>    H        0.49734       -2.24930        0.93107
| 10>    H        1.33237       -0.96970        0.01951
| 11>    H        0.54267       -2.29690       -0.86051
| 12>    O       -0.79636        0.37293       -0.06523
| 13> *
| 14>
| 15>
| 16>                          ****END OF INPUT****
 Total Charge           Charge          ....    0
 Multiplicity           Mult            ....    1
 Number of Electrons    NEL             ....   32
FINAL SINGLE POINT ENERGY      -192.784202061156
FINAL SINGLE POINT ENERGY      -192.785687339209
FINAL SINGLE POINT ENERGY      -192.785922561609
FINAL SINGLE POINT ENERGY      -192.786088210540
FINAL SINGLE POINT ENERGY      -192.786130040218
FINAL SINGLE POINT ENERGY      -192.786169634787
FINAL SINGLE POINT ENERGY      -192.786198865162
FINAL SINGLE POINT ENERGY      -192.786230450593
FINAL SINGLE POINT ENERGY      -192.786248173547
FINAL SINGLE POINT ENERGY      -192.786252864645
FINAL SINGLE POINT ENERGY      -192.786254094022
FINAL SINGLE POINT ENERGY      -192.786255376210
FINAL SINGLE POINT ENERGY      -192.786257321281
FINAL SINGLE POINT ENERGY      -192.786260331892
FINAL SINGLE POINT ENERGY      -192.786265495963
FINAL SINGLE POINT ENERGY      -192.786270557453
FINAL SINGLE POINT ENERGY      -192.786273085862
FINAL SINGLE POINT ENERGY      -192.786273231692
                    ***********************HURRAY********************

CARTESIAN COORDINATES (ANGSTROEM)
---------------------------------
  C     -2.088921   -1.629462   -0.035933
  C     -0.801078   -0.841472   -0.094282
  H     -2.944179   -0.947511   -0.119139
  H     -2.154936   -2.200320    0.904047
  H     -2.122997   -2.363918   -0.857226
  C      0.477054   -1.628132    0.080633
  H      0.500986   -2.094439    1.078821
  H      1.340724   -0.961139   -0.032584
  H      0.536939   -2.446917   -0.653996
  O     -0.793721    0.352600   -0.270341

 Multiplicity           Mult            ....    1
 Number of Electrons    NEL             ....   32
 Basis Dimension        Dim             ....   86

ORBITAL ENERGIES
----------------

  NO   OCC          E(Eh)            E(eV)
   0   2.0000     -19.195498      -522.3361
   1   2.0000     -10.320808      -280.8435
   2   2.0000     -10.239723      -278.6370
   3   2.0000     -10.239548      -278.6323
   4   2.0000      -1.059109       -28.8198
   5   2.0000      -0.785752       -21.3814
   6   2.0000      -0.724914       -19.7259
   7   2.0000      -0.542700       -14.7676
   8   2.0000      -0.478015       -13.0074
   9   2.0000      -0.475301       -12.9336
  10   2.0000      -0.463968       -12.6252
  11   2.0000      -0.414581       -11.2813
  12   2.0000      -0.408485       -11.1154
  13   2.0000      -0.390235       -10.6188
  14   2.0000      -0.363994        -9.9048
  15   2.0000      -0.260399        -7.0858
  16   0.0000      -0.006666        -0.1814
  17   0.0000       0.060065         1.6344
  18   0.0000       0.118252         3.2178
  19   0.0000       0.123896         3.3714
  20   0.0000       0.130259         3.5445

MULLIKEN ATOMIC CHARGES
-----------------------
   0 C :   -0.071655
   1 C :   -0.015846
   2 H :    0.064382
   3 H :    0.059895
   4 H :    0.065521
   5 C :   -0.069913
   6 H :    0.062196
   7 H :    0.064494
   8 H :    0.061809
   9 O :   -0.220882
Sum of atomic charges:    0.0000000

LOEWDIN ATOMIC CHARGES
----------------------
   0 C :   -0.097880
   1 C :    0.073207
   2 H :    0.042807
   3 H :    0.045344
   4 H :    0.048252
   5 C :   -0.097609
   6 H :    0.047770
   7 H :    0.042745
   8 H :    0.045713
   9 O :   -0.150349

  Mayer bond orders larger than 0.100000
B(  0-C ,  1-C ) :   0.9985 B(  0-C ,  2-H ) :   0.9601 B(  0-C ,  3-H ) :   0.9548
B(  0-C ,  4-H ) :   0.9521 B(  1-C ,  5-C ) :   0.9999 B(  1-C ,  9-O ) :   2.1518
B(  5-C ,  6-H ) :   0.9514 B(  5-C ,  7-H ) :   0.9603 B(  5-C ,  8-H ) :   0.9547

FINAL SINGLE POINT ENERGY      -192.786273887590

DIPOLE MOMENT
-------------
                                X             Y             Z
Electronic contribution:      0.02368       3.90314      -0.57901
Nuclear contribution   :     -0.03108      -5.01318       0.74297
                        -----------------------------------------
Total Dipole Moment    :     -0.00740      -1.11004       0.16396
                        -----------------------------------------
Magnitude (a.u.)       :      1.12211
Magnitude (Debye)      :      2.85217

VIBRATIONAL FREQUENCIES
-----------------------

Scaling factor for frequencies =  1.000000000  (already applied!)

   0:         0.00 cm**-1
   1:         0.00 cm**-1
   2:         0.00 cm**-1
   3:         0.00 cm**-1
   4:         0.00 cm**-1
   5:         0.00 cm**-1
   6:        34.72 cm**-1
   7:       135.74 cm**-1
   8:       381.86 cm**-1
   9:       489.98 cm**-1
  10:       541.69 cm**-1
  11:       811.34 cm**-1
  12:       859.47 cm**-1
  13:       882.86 cm**-1
  14:      1068.37 cm**-1
  15:      1104.57 cm**-1
  16:      1237.23 cm**-1
  17:      1355.51 cm**-1
  18:      1379.96 cm**-1
  19:      1423.23 cm**-1
  20:      1433.64 cm**-1
  21:      1436.17 cm**-1
  22:      1456.92 cm**-1
  23:      1872.85 cm**-1
  24:      3055.12 cm**-1
  25:      3060.60 cm**-1
  26:      3142.21 cm**-1
  27:      3148.12 cm**-1
  28:      3197.25 cm**-1
  29:      3197.79 cm**-1

IR SPECTRUM
-----------

 Mode    freq (cm**-1)   T**2         TX         TY         TZ
-------------------------------------------------------------------
   6:        34.72    0.007550  (  0.017487  -0.085110   0.000442)
   7:       135.74    0.248254  (  0.106338   0.058277   0.483270)
   8:       381.86    1.248790  ( -0.006451  -1.106229   0.158135)
   9:       489.98    0.108417  ( -0.130422  -0.029027  -0.300940)
  10:       541.69   15.197561  ( -3.895635  -0.000433  -0.146936)
  11:       811.34    1.159963  ( -0.002168  -1.065565   0.156618)
  12:       859.47    0.007157  (  0.003305  -0.083916   0.010188)
  13:       882.86    3.621234  ( -1.892582  -0.014780  -0.197859)
  14:      1068.37    0.092552  ( -0.006348   0.300184  -0.049007)
  15:      1104.57    5.853980  (  0.064612   0.353649   2.392643)
  16:      1237.23   47.069114  ( -6.851983   0.009418  -0.345471)
  17:      1355.51   20.779676  ( -0.161383  -4.500849   0.704266)
  18:      1379.96  107.705095  ( 10.345222  -0.004421   0.825503)
  19:      1423.23    0.857870  (  0.905701  -0.162960  -0.104978)
  20:      1433.64   12.815416  (  0.034136   3.525800  -0.618856)
  21:      1436.17   11.175679  (  0.054941   3.308134  -0.478445)
  22:      1456.92   24.375097  (  0.587395  -0.735965  -4.846485)
  23:      1872.85  183.117842  ( -0.083762 -13.387127   1.973740)
  24:      3055.12    0.614046  ( -0.754308  -0.212093  -0.009097)
  25:      3060.60    2.676282  ( -0.103254   1.616787  -0.227202)
  26:      3142.21    0.317045  ( -0.057507  -0.232163   0.509743)
  27:      3148.12    7.534030  (  0.256226  -0.411515  -2.701672)
  28:      3197.25    4.399470  (  2.046088   0.459800   0.039714)
  29:      3197.79    2.331561  ( -0.651206   1.358830  -0.247127)

--------------------------
THERMOCHEMISTRY AT 298.15K
--------------------------

Temperature         ... 298.15 K
Pressure            ... 1.00 atm
Total Mass          ... 58.08 AMU

Throughout the following assumptions are being made:
  (1) The electronic state is orbitally nondegenerate
  (2) There are no thermally accessible electronically excited states
  (3) Hindered rotations indicated by low frequency modes are not
      treated as such but are treated as vibrations and this may
      cause some error
  (4) All equations used are the standard statistical mechanics
      equations for an ideal gas
  (5) All vibrations are strictly harmonic

freq.      34.72  E(vib)   ...       0.54
freq.     135.74  E(vib)   ...       0.42
freq.     381.86  E(vib)   ...       0.21
freq.     489.98  E(vib)   ...       0.15
freq.     541.69  E(vib)   ...       0.12
freq.     811.34  E(vib)   ...       0.05
freq.     859.47  E(vib)   ...       0.04
freq.     882.86  E(vib)   ...       0.04
freq.    1068.37  E(vib)   ...       0.02
freq.    1104.57  E(vib)   ...       0.02
freq.    1237.23  E(vib)   ...       0.01
freq.    1355.51  E(vib)   ...       0.01
freq.    1379.96  E(vib)   ...       0.01
freq.    1423.23  E(vib)   ...       0.00
freq.    1433.64  E(vib)   ...       0.00
freq.    1436.17  E(vib)   ...       0.00
freq.    1456.92  E(vib)   ...       0.00
freq.    1872.85  E(vib)   ...       0.00
freq.    3055.12  E(vib)   ...       0.00
freq.    3060.60  E(vib)   ...       0.00
freq.    3142.21  E(vib)   ...       0.00
freq.    3148.12  E(vib)   ...       0.00
freq.    3197.25  E(vib)   ...       0.00
freq.    3197.79  E(vib)   ...       0.00

------------
INNER ENERGY
------------

The inner energy is: U= E(el) + E(ZPE) + E(vib) + E(rot) + E(trans)
    E(el)   - is the total energy from the electronic structure calculation
              = E(kin-el) + E(nuc-el) + E(el-el) + E(nuc-nuc)
    E(ZPE)  - the the zero temperature vibrational energy from the frequency calculation
    E(vib)  - the the finite temperature correction to E(ZPE) due to population
              of excited vibrational states
    E(rot)  - is the rotational thermal energy
    E(trans)- is the translational thermal energy

Summary of contributions to the inner energy U:
Electronic energy                ...   -192.78627389 Eh
Zero point energy                ...      0.08362507 Eh      52.48 kcal/mol
Thermal vibrational correction   ...      0.00259637 Eh       1.63 kcal/mol
Thermal rotational correction    ...      0.00141627 Eh       0.89 kcal/mol
Thermal translational correction ...      0.00141627 Eh       0.89 kcal/mol
-----------------------------------------------------------------------
Total thermal energy                   -192.69721990 Eh

Summary of corrections to the electronic energy:
(perhaps to be used in another calculation)
Total thermal correction                  0.00542892 Eh       3.41 kcal/mol
Non-thermal (ZPE) correction              0.08362507 Eh      52.48 kcal/mol
-----------------------------------------------------------------------
Total correction                          0.08905399 Eh      55.88 kcal/mol

--------
ENTHALPY
--------

The enthalpy is H = U + kB*T
                kB is Boltzmann's constant
Total free energy                 ...   -192.69721990 Eh
Thermal Enthalpy correction       ...      0.00094421 Eh       0.59 kcal/mol
-----------------------------------------------------------------------
Total Enthalpy                    ...   -192.69627569 Eh

Note: Only C1 symmetry has been detected, increase convergence thresholds
      if your molecule has a higher symmetry. Symmetry factor of 1.0 is
      used for the rotational entropy correction.

Note: Rotational entropy computed according to Herzberg
Infrared and Raman Spectra, Chapter V,1, Van Nostrand Reinhold, 1945
Point Group:  C1, Symmetry Number:   1
Rotational constants in cm-1:     0.339856     0.284840     0.164500

Vibrational entropy computed according to the QRRHO of S. Grimme
Chem.Eur.J. 2012 18 9955

-------
ENTROPY
-------

The entropy contributions are T*S = T*(S(el)+S(vib)+S(rot)+S(trans))
     S(el)   - electronic entropy
     S(vib)  - vibrational entropy
     S(rot)  - rotational entropy
     S(trans)- translational entropy
The entropies will be listed as mutliplied by the temperature to get
units of energy

Electronic entropy                ...      0.00000000 Eh      0.00 kcal/mol
Vibrational entropy               ...      0.00465062 Eh      2.92 kcal/mol
Rotational entropy                ...      0.01146522 Eh      7.19 kcal/mol
Translational entropy             ...      0.01810171 Eh     11.36 kcal/mol
-----------------------------------------------------------------------
Final entropy term                ...      0.03421755 Eh     21.47 kcal/mol

In case the symmetry of your molecule has not been determined correctly
or in case you have a reason to use a different symmetry number we print
out the resulting rotational entropy values for sn=1,12 :
 --------------------------------------------------------
|  sn= 1 | S(rot)=       0.01146522 Eh      7.19 kcal/mol|
|  sn= 2 | S(rot)=       0.01081076 Eh      6.78 kcal/mol|
|  sn= 3 | S(rot)=       0.01042793 Eh      6.54 kcal/mol|
|  sn= 4 | S(rot)=       0.01015631 Eh      6.37 kcal/mol|
|  sn= 5 | S(rot)=       0.00994562 Eh      6.24 kcal/mol|
|  sn= 6 | S(rot)=       0.00977348 Eh      6.13 kcal/mol|
|  sn= 7 | S(rot)=       0.00962793 Eh      6.04 kcal/mol|
|  sn= 8 | S(rot)=       0.00950185 Eh      5.96 kcal/mol|
|  sn= 9 | S(rot)=       0.00939064 Eh      5.89 kcal/mol|
|  sn=10 | S(rot)=       0.00929116 Eh      5.83 kcal/mol|
|  sn=11 | S(rot)=       0.00920117 Eh      5.77 kcal/mol|
|  sn=12 | S(rot)=       0.00911902 Eh      5.72 kcal/mol|
 --------------------------------------------------------

-------------------
GIBBS FREE ENERGY
-------------------

The Gibbs free energy is G = H - T*S

Total enthalpy                    ...   -192.69627569 Eh
Total entropy correction          ...     -0.03421755 Eh    -21.47 kcal/mol
-----------------------------------------------------------------------
Final Gibbs free energy         ...   -192.73049325 Eh

For completeness - the Gibbs free energy minus the electronic energy
G-E(el)                           ...      0.05578064 Eh     35.00 kcal/mol

                             ****ORCA TERMINATED NORMALLY****
TOTAL RUN TIME: 0 days 0 hours 4 minutes 31 seconds 132 msec
