                         Program Version 4.2.1 -  RELEASE  -
|  1> !BP86 OPT FREQ def2-TZVP
|  2> * xyz 0 1
|  3>    O       -4.00000        0.00000        0.00000
|  4>    H       -2.97365        0.00000        0.00000
|  5>    H       -3.99650       -0.97855        0.31165
|  6> *
|  7>
|  8>
|  9>                          ****END OF INPUT****
 Total Charge           Charge          ....    0
 Multiplicity           Mult            ....    1
 Number of Electrons    NEL             ....   10
FINAL SINGLE POINT ENERGY       -76.456263262422
FINAL SINGLE POINT ENERGY       -76.463014910186
FINAL SINGLE POINT ENERGY       -76.464513746417
FINAL SINGLE POINT ENERGY       -76.464584368630
FINAL SINGLE POINT ENERGY       -76.464584494159
                    ***********************HURRAY********************

CARTESIAN COORDINATES (ANGSTROEM)
---------------------------------
  O     -3.937887   -0.059292    0.018883
  H     -2.974353    0.058521   -0.018638
  H     -4.057910   -0.977779    0.311405

 Multiplicity           Mult            ....    1
 Number of Electrons    NEL             ....   10
 Basis Dimension        Dim             ....   43

ORBITAL ENERGIES
----------------

  NO   OCC          E(Eh)            E(eV)
   0   2.0000     -18.766335      -510.6579
   1   2.0000      -0.924213       -25.1491
   2   2.0000      -0.478701       -13.0261
   3   2.0000      -0.337571        -9.1858
   4   2.0000      -0.260487        -7.0882
   5   0.0000       0.000424         0.0115
   6   0.0000       0.074495         2.0271
   7   0.0000       0.326728         8.8907
   8   0.0000       0.377885        10.2828
   9   0.0000       0.395443        10.7606

MULLIKEN ATOMIC CHARGES
-----------------------
   0 O :   -0.621119
   1 H :    0.310205
   2 H :    0.310914
Sum of atomic charges:    0.0000000

LOEWDIN ATOMIC CHARGES
----------------------
   0 O :   -0.315799
   1 H :    0.157863
   2 H :    0.157936

  Mayer bond orders larger than 0.100000
B(  0-O ,  1-H ) :   0.9142 B(  0-O ,  2-H ) :   0.9131

FINAL SINGLE POINT ENERGY       -76.464584495213

DIPOLE MOMENT
-------------
                                X             Y             Z
Electronic contribution:     -0.13250       0.12680      -0.03982
Nuclear contribution   :      0.70211      -0.66645       0.21225
                        -----------------------------------------
Total Dipole Moment    :      0.56960      -0.53965       0.17243
                        -----------------------------------------
Magnitude (a.u.)       :      0.80337
Magnitude (Debye)      :      2.04200

VIBRATIONAL FREQUENCIES
-----------------------

Scaling factor for frequencies =  1.000000000  (already applied!)

   0:         0.00 cm**-1
   1:         0.00 cm**-1
   2:         0.00 cm**-1
   3:         0.00 cm**-1
   4:         0.00 cm**-1
   5:         0.00 cm**-1
   6:      1581.84 cm**-1
   7:      3678.02 cm**-1
   8:      3786.25 cm**-1

IR SPECTRUM
-----------

 Mode    freq (cm**-1)   T**2         TX         TY         TZ
-------------------------------------------------------------------
   6:      1581.84   70.652894  (  5.952664  -5.649580   1.816844)
   7:      3678.02    1.808821  (  0.980621  -0.875558   0.283904)
   8:      3786.25   33.003033  (  4.047170   3.883480  -1.241785)

--------------------------
THERMOCHEMISTRY AT 298.15K
--------------------------

Temperature         ... 298.15 K
Pressure            ... 1.00 atm
Total Mass          ... 18.02 AMU

Throughout the following assumptions are being made:
  (1) The electronic state is orbitally nondegenerate
  (2) There are no thermally accessible electronically excited states
  (3) Hindered rotations indicated by low frequency modes are not
      treated as such but are treated as vibrations and this may
      cause some error
  (4) All equations used are the standard statistical mechanics
      equations for an ideal gas
  (5) All vibrations are strictly harmonic

freq.    1581.84  E(vib)   ...       0.00
freq.    3678.02  E(vib)   ...       0.00
freq.    3786.25  E(vib)   ...       0.00

------------
INNER ENERGY
------------

The inner energy is: U= E(el) + E(ZPE) + E(vib) + E(rot) + E(trans)
    E(el)   - is the total energy from the electronic structure calculation
              = E(kin-el) + E(nuc-el) + E(el-el) + E(nuc-nuc)
    E(ZPE)  - the the zero temperature vibrational energy from the frequency calculation
    E(vib)  - the the finite temperature correction to E(ZPE) due to population
              of excited vibrational states
    E(rot)  - is the rotational thermal energy
    E(trans)- is the translational thermal energy

Summary of contributions to the inner energy U:
Electronic energy                ...    -76.46458450 Eh
Zero point energy                ...      0.02060856 Eh      12.93 kcal/mol
Thermal vibrational correction   ...      0.00000349 Eh       0.00 kcal/mol
Thermal rotational correction    ...      0.00141627 Eh       0.89 kcal/mol
Thermal translational correction ...      0.00141627 Eh       0.89 kcal/mol
-----------------------------------------------------------------------
Total thermal energy                    -76.44113990 Eh

Summary of corrections to the electronic energy:
(perhaps to be used in another calculation)
Total thermal correction                  0.00283603 Eh       1.78 kcal/mol
Non-thermal (ZPE) correction              0.02060856 Eh      12.93 kcal/mol
-----------------------------------------------------------------------
Total correction                          0.02344459 Eh      14.71 kcal/mol

--------
ENTHALPY
--------

The enthalpy is H = U + kB*T
                kB is Boltzmann's constant
Total free energy                 ...    -76.44113990 Eh
Thermal Enthalpy correction       ...      0.00094421 Eh       0.59 kcal/mol
-----------------------------------------------------------------------
Total Enthalpy                    ...    -76.44019569 Eh

Note: Rotational entropy computed according to Herzberg
Infrared and Raman Spectra, Chapter V,1, Van Nostrand Reinhold, 1945
Point Group:  Cs, Symmetry Number:   1
Rotational constants in cm-1:    26.567436    14.191133     9.250129

Vibrational entropy computed according to the QRRHO of S. Grimme
Chem.Eur.J. 2012 18 9955

-------
ENTROPY
-------

The entropy contributions are T*S = T*(S(el)+S(vib)+S(rot)+S(trans))
     S(el)   - electronic entropy
     S(vib)  - vibrational entropy
     S(rot)  - rotational entropy
     S(trans)- translational entropy
The entropies will be listed as mutliplied by the temperature to get
units of energy

Electronic entropy                ...      0.00000000 Eh      0.00 kcal/mol
Vibrational entropy               ...      0.00000395 Eh      0.00 kcal/mol
Rotational entropy                ...      0.00566000 Eh      3.55 kcal/mol
Translational entropy             ...      0.01644380 Eh     10.32 kcal/mol
-----------------------------------------------------------------------
Final entropy term                ...      0.02210775 Eh     13.87 kcal/mol

In case the symmetry of your molecule has not been determined correctly
or in case you have a reason to use a different symmetry number we print
out the resulting rotational entropy values for sn=1,12 :
 --------------------------------------------------------
|  sn= 1 | S(rot)=       0.00566000 Eh      3.55 kcal/mol|
|  sn= 2 | S(rot)=       0.00500554 Eh      3.14 kcal/mol|
|  sn= 3 | S(rot)=       0.00462271 Eh      2.90 kcal/mol|
|  sn= 4 | S(rot)=       0.00435108 Eh      2.73 kcal/mol|
|  sn= 5 | S(rot)=       0.00414040 Eh      2.60 kcal/mol|
|  sn= 6 | S(rot)=       0.00396825 Eh      2.49 kcal/mol|
|  sn= 7 | S(rot)=       0.00382270 Eh      2.40 kcal/mol|
|  sn= 8 | S(rot)=       0.00369663 Eh      2.32 kcal/mol|
|  sn= 9 | S(rot)=       0.00358542 Eh      2.25 kcal/mol|
|  sn=10 | S(rot)=       0.00348594 Eh      2.19 kcal/mol|
|  sn=11 | S(rot)=       0.00339595 Eh      2.13 kcal/mol|
|  sn=12 | S(rot)=       0.00331379 Eh      2.08 kcal/mol|
 --------------------------------------------------------

-------------------
GIBBS FREE ENERGY
-------------------

The Gibbs free energy is G = H - T*S

Total enthalpy                    ...    -76.44019569 Eh
Total entropy correction          ...     -0.02210775 Eh    -13.87 kcal/mol
-----------------------------------------------------------------------
Final Gibbs free energy         ...    -76.46230344 Eh

For completeness - the Gibbs free energy minus the electronic energy
G-E(el)                           ...      0.00228106 Eh      1.43 kcal/mol

                             ****ORCA TERMINATED NORMALLY****
TOTAL RUN TIME: 0 days 0 hours 0 minutes 33 seconds 894 msec
