                         Program Version 4.2.1 -  RELEASE  -
|  1> !HF OPT FREQ def2-TZVP
|  2> * xyz 0 1
|  3>    O       -4.00000        0.00000        0.00000
|  4>    H       -2.97365        0.00000        0.00000
|  5>    H       -3.99650       -0.97855        0.31165
|  6> *
|  7>
|  8>
|  9>                          ****END OF INPUT****
 Total Charge           Charge          ....    0
 Multiplicity           Mult            ....    1
 Number of Electrons    NEL             ....   10
FINAL SINGLE POINT ENERGY       -76.041523435477
FINAL SINGLE POINT ENERGY       -76.057392922083
FINAL SINGLE POINT ENERGY       -76.059433160698
FINAL SINGLE POINT ENERGY       -76.059576161703
FINAL SINGLE POINT ENERGY       -76.059578780485
                    ***********************HURRAY********************

CARTESIAN COORDINATES (ANGSTROEM)
---------------------------------
  O     -3.922897   -0.073502    0.023409
  H     -2.990861    0.057022   -0.018160
  H     -4.056392   -0.962071    0.306402

 Multiplicity           Mult            ....    1
 Number of Electrons    NEL             ....   10
 Basis Dimension        Dim             ....   43

ORBITAL ENERGIES
----------------

  NO   OCC          E(Eh)            E(eV)
   0   2.0000     -20.555958      -559.3561
   1   2.0000      -1.356287       -36.9064
   2   2.0000      -0.727127       -19.7861
   3   2.0000      -0.580233       -15.7889
   4   2.0000      -0.508734       -13.8434
   5   0.0000       0.129547         3.5252
   6   0.0000       0.198375         5.3980
   7   0.0000       0.531003        14.4493
   8   0.0000       0.564558        15.3624
   9   0.0000       0.597070        16.2471

MULLIKEN ATOMIC CHARGES
-----------------------
   0 O :   -0.686538
   1 H :    0.343269
   2 H :    0.343269
Sum of atomic charges:   -0.0000000

LOEWDIN ATOMIC CHARGES
----------------------
   0 O :   -0.293877
   1 H :    0.146938
   2 H :    0.146940

  Mayer bond orders larger than 0.100000
B(  0-O ,  1-H ) :   0.8937 B(  0-O ,  2-H ) :   0.8937

FINAL SINGLE POINT ENERGY       -76.059578822955

DIPOLE MOMENT
-------------
                                X             Y             Z
Electronic contribution:     -0.07631       0.07244      -0.02307
Nuclear contribution   :      0.66467      -0.63097       0.20095
                        -----------------------------------------
Total Dipole Moment    :      0.58836      -0.55853       0.17788
                        -----------------------------------------
Magnitude (a.u.)       :      0.83052
Magnitude (Debye)      :      2.11102

VIBRATIONAL FREQUENCIES
-----------------------

Scaling factor for frequencies =  1.000000000  (already applied!)

   0:         0.00 cm**-1
   1:         0.00 cm**-1
   2:         0.00 cm**-1
   3:         0.00 cm**-1
   4:         0.00 cm**-1
   5:         0.00 cm**-1
   6:      1734.48 cm**-1
   7:      4110.02 cm**-1
   8:      4211.96 cm**-1

IR SPECTRUM
-----------

 Mode    freq (cm**-1)   T**2         TX         TY         TZ
-------------------------------------------------------------------
   6:      1734.48  101.878288  (  7.149238  -6.789133   2.162026)
   7:      4110.02   17.026232  (  2.921471  -2.776673   0.883927)
   8:      4211.96   76.561363  (  6.176842   5.905293  -1.880293)

--------------------------
THERMOCHEMISTRY AT 298.15K
--------------------------

Temperature         ... 298.15 K
Pressure            ... 1.00 atm
Total Mass          ... 18.02 AMU

Throughout the following assumptions are being made:
  (1) The electronic state is orbitally nondegenerate
  (2) There are no thermally accessible electronically excited states
  (3) Hindered rotations indicated by low frequency modes are not
      treated as such but are treated as vibrations and this may
      cause some error
  (4) All equations used are the standard statistical mechanics
      equations for an ideal gas
  (5) All vibrations are strictly harmonic

freq.    1734.48  E(vib)   ...       0.00
freq.    4110.02  E(vib)   ...       0.00
freq.    4211.96  E(vib)   ...       0.00

------------
INNER ENERGY
------------

The inner energy is: U= E(el) + E(ZPE) + E(vib) + E(rot) + E(trans)
    E(el)   - is the total energy from the electronic structure calculation
              = E(kin-el) + E(nuc-el) + E(el-el) + E(nuc-nuc)
    E(ZPE)  - the the zero temperature vibrational energy from the frequency calculation
    E(vib)  - the the finite temperature correction to E(ZPE) due to population
              of excited vibrational states
    E(rot)  - is the rotational thermal energy
    E(trans)- is the translational thermal energy

Summary of contributions to the inner energy U:
Electronic energy                ...    -76.05957882 Eh
Zero point energy                ...      0.02291031 Eh      14.38 kcal/mol
Thermal vibrational correction   ...      0.00000183 Eh       0.00 kcal/mol
Thermal rotational correction    ...      0.00141627 Eh       0.89 kcal/mol
Thermal translational correction ...      0.00141627 Eh       0.89 kcal/mol
-----------------------------------------------------------------------
Total thermal energy                    -76.03383414 Eh

Summary of corrections to the electronic energy:
(perhaps to be used in another calculation)
Total thermal correction                  0.00283437 Eh       1.78 kcal/mol
Non-thermal (ZPE) correction              0.02291031 Eh      14.38 kcal/mol
-----------------------------------------------------------------------
Total correction                          0.02574468 Eh      16.15 kcal/mol

--------
ENTHALPY
--------

The enthalpy is H = U + kB*T
                kB is Boltzmann's constant
Total free energy                 ...    -76.03383414 Eh
Thermal Enthalpy correction       ...      0.00094421 Eh       0.59 kcal/mol
-----------------------------------------------------------------------
Total Enthalpy                    ...    -76.03288993 Eh

Note: Rotational entropy computed according to Herzberg
Infrared and Raman Spectra, Chapter V,1, Van Nostrand Reinhold, 1945
Point Group:  Cs, Symmetry Number:   1
Rotational constants in cm-1:    29.641783    14.674889     9.815491

Vibrational entropy computed according to the QRRHO of S. Grimme
Chem.Eur.J. 2012 18 9955

-------
ENTROPY
-------

The entropy contributions are T*S = T*(S(el)+S(vib)+S(rot)+S(trans))
     S(el)   - electronic entropy
     S(vib)  - vibrational entropy
     S(rot)  - rotational entropy
     S(trans)- translational entropy
The entropies will be listed as mutliplied by the temperature to get
units of energy

Electronic entropy                ...      0.00000000 Eh      0.00 kcal/mol
Vibrational entropy               ...      0.00000205 Eh      0.00 kcal/mol
Rotational entropy                ...      0.00556447 Eh      3.49 kcal/mol
Translational entropy             ...      0.01644380 Eh     10.32 kcal/mol
-----------------------------------------------------------------------
Final entropy term                ...      0.02201032 Eh     13.81 kcal/mol

In case the symmetry of your molecule has not been determined correctly
or in case you have a reason to use a different symmetry number we print
out the resulting rotational entropy values for sn=1,12 :
 --------------------------------------------------------
|  sn= 1 | S(rot)=       0.00556447 Eh      3.49 kcal/mol|
|  sn= 2 | S(rot)=       0.00491002 Eh      3.08 kcal/mol|
|  sn= 3 | S(rot)=       0.00452718 Eh      2.84 kcal/mol|
|  sn= 4 | S(rot)=       0.00425556 Eh      2.67 kcal/mol|
|  sn= 5 | S(rot)=       0.00404487 Eh      2.54 kcal/mol|
|  sn= 6 | S(rot)=       0.00387273 Eh      2.43 kcal/mol|
|  sn= 7 | S(rot)=       0.00372718 Eh      2.34 kcal/mol|
|  sn= 8 | S(rot)=       0.00360110 Eh      2.26 kcal/mol|
|  sn= 9 | S(rot)=       0.00348989 Eh      2.19 kcal/mol|
|  sn=10 | S(rot)=       0.00339041 Eh      2.13 kcal/mol|
|  sn=11 | S(rot)=       0.00330042 Eh      2.07 kcal/mol|
|  sn=12 | S(rot)=       0.00321827 Eh      2.02 kcal/mol|
 --------------------------------------------------------

-------------------
GIBBS FREE ENERGY
-------------------

The Gibbs free energy is G = H - T*S

Total enthalpy                    ...    -76.03288993 Eh
Total entropy correction          ...     -0.02201032 Eh    -13.81 kcal/mol
-----------------------------------------------------------------------
Final Gibbs free energy         ...    -76.05490026 Eh

For completeness - the Gibbs free energy minus the electronic energy
G-E(el)                           ...      0.00467857 Eh      2.94 kcal/mol

                             ****ORCA TERMINATED NORMALLY****
TOTAL RUN TIME: 0 days 0 hours 0 minutes 38 seconds 574 msec
